V -t * -v 1.0a5 -a 0
A -t * -n 1 -p 0 -o 0x7fffffff -c 30 -a 1
A -t * -h 1 -m 1073741823 -s 0
n -t * -a 4 -s 4 -S UP -v circle -c black -i black
n -t * -a 0 -s 0 -S UP -v circle -c black -i black
n -t * -a 5 -s 5 -S UP -v circle -c black -i black
n -t * -a 1 -s 1 -S UP -v circle -c black -i black
n -t * -a 6 -s 6 -S UP -v circle -c black -i black
n -t * -a 2 -s 2 -S UP -v circle -c black -i black
n -t * -a 3 -s 3 -S UP -v circle -c black -i black
l -t * -s 0 -d 1 -S UP -r 10000000 -D 0.002 -c black -o right-up
l -t * -s 0 -d 3 -S UP -r 10000000 -D 0.002 -c black -o right-down
l -t * -s 1 -d 2 -S UP -r 1500000 -D 0.002 -c black -o right
l -t * -s 3 -d 4 -S UP -r 3000000 -D 0.002 -c black -o right
l -t * -s 2 -d 5 -S UP -r 10000000 -D 0.002 -c black -o right
l -t * -s 4 -d 6 -S UP -r 10000000 -D 0.002 -c black -o right
n -t 0 -s 0 -S DLABEL -l "s" -L ""
n -t 0 -s 1 -S DLABEL -l "r1" -L ""
n -t 0 -s 2 -S DLABEL -l "r2" -L ""
n -t 0 -s 3 -S DLABEL -l "r3" -L ""
n -t 0 -s 4 -S DLABEL -l "r4" -L ""
n -t 0 -s 5 -S DLABEL -l "d1" -L ""
n -t 0 -s 6 -S DLABEL -l "d2" -L ""
+ -t 0 -s 0 -d 1 -p tcp -e 40 -c 0 -i 0 -a 0 -x {0.0 5.0 0 ------- null}
- -t 0 -s 0 -d 1 -p tcp -e 40 -c 0 -i 0 -a 0 -x {0.0 5.0 0 ------- null}
h -t 0 -s 0 -d 1 -p tcp -e 40 -c 0 -i 0 -a 0 -x {0.0 5.0 -1 ------- null}
r -t 0.002032 -s 0 -d 1 -p tcp -e 40 -c 0 -i 0 -a 0 -x {0.0 5.0 0 ------- null}
+ -t 0.002032 -s 1 -d 2 -p tcp -e 40 -c 0 -i 0 -a 0 -x {0.0 5.0 0 ------- null}
- -t 0.002032 -s 1 -d 2 -p tcp -e 40 -c 0 -i 0 -a 0 -x {0.0 5.0 0 ------- null}
h -t 0.002032 -s 1 -d 2 -p tcp -e 40 -c 0 -i 0 -a 0 -x {0.0 5.0 -1 ------- null}
r -t 0.00424533333333333 -s 1 -d 2 -p tcp -e 40 -c 0 -i 0 -a 0 -x {0.0 5.0 0 ------- null}
+ -t 0.00424533333333333 -s 2 -d 5 -p tcp -e 40 -c 0 -i 0 -a 0 -x {0.0 5.0 0 ------- null}
- -t 0.00424533333333333 -s 2 -d 5 -p tcp -e 40 -c 0 -i 0 -a 0 -x {0.0 5.0 0 ------- null}
h -t 0.00424533333333333 -s 2 -d 5 -p tcp -e 40 -c 0 -i 0 -a 0 -x {0.0 5.0 -1 ------- null}
r -t 0.00627733333333333 -s 2 -d 5 -p tcp -e 40 -c 0 -i 0 -a 0 -x {0.0 5.0 0 ------- null}
+ -t 0.00627733333333333 -s 5 -d 2 -p ack -e 40 -c 0 -i 1 -a 0 -x {5.0 0.0 0 ------- null}
- -t 0.00627733333333333 -s 5 -d 2 -p ack -e 40 -c 0 -i 1 -a 0 -x {5.0 0.0 0 ------- null}
h -t 0.00627733333333333 -s 5 -d 2 -p ack -e 40 -c 0 -i 1 -a 0 -x {5.0 0.0 -1 ------- null}
r -t 0.00830933333333333 -s 5 -d 2 -p ack -e 40 -c 0 -i 1 -a 0 -x {5.0 0.0 0 ------- null}
+ -t 0.00830933333333333 -s 2 -d 1 -p ack -e 40 -c 0 -i 1 -a 0 -x {5.0 0.0 0 ------- null}
- -t 0.00830933333333333 -s 2 -d 1 -p ack -e 40 -c 0 -i 1 -a 0 -x {5.0 0.0 0 ------- null}
h -t 0.00830933333333333 -s 2 -d 1 -p ack -e 40 -c 0 -i 1 -a 0 -x {5.0 0.0 -1 ------- null}
r -t 0.0105226666666667 -s 2 -d 1 -p ack -e 40 -c 0 -i 1 -a 0 -x {5.0 0.0 0 ------- null}
+ -t 0.0105226666666667 -s 1 -d 0 -p ack -e 40 -c 0 -i 1 -a 0 -x {5.0 0.0 0 ------- null}
- -t 0.0105226666666667 -s 1 -d 0 -p ack -e 40 -c 0 -i 1 -a 0 -x {5.0 0.0 0 ------- null}
h -t 0.0105226666666667 -s 1 -d 0 -p ack -e 40 -c 0 -i 1 -a 0 -x {5.0 0.0 -1 ------- null}
r -t 0.0125546666666667 -s 1 -d 0 -p ack -e 40 -c 0 -i 1 -a 0 -x {5.0 0.0 0 ------- null}
+ -t 0.0125546666666667 -s 0 -d 1 -p tcp -e 540 -c 0 -i 2 -a 0 -x {0.0 5.0 1 ------- null}
- -t 0.0125546666666667 -s 0 -d 1 -p tcp -e 540 -c 0 -i 2 -a 0 -x {0.0 5.0 1 ------- null}
h -t 0.0125546666666667 -s 0 -d 1 -p tcp -e 540 -c 0 -i 2 -a 0 -x {0.0 5.0 -1 ------- null}
+ -t 0.0125546666666667 -s 0 -d 1 -p tcp -e 540 -c 0 -i 3 -a 0 -x {0.0 5.0 2 ------- null}
- -t 0.0129866666666667 -s 0 -d 1 -p tcp -e 540 -c 0 -i 3 -a 0 -x {0.0 5.0 2 ------- null}
h -t 0.0129866666666667 -s 0 -d 1 -p tcp -e 540 -c 0 -i 3 -a 0 -x {0.0 5.0 -1 ------- null}
r -t 0.0149866666666667 -s 0 -d 1 -p tcp -e 540 -c 0 -i 2 -a 0 -x {0.0 5.0 1 ------- null}
+ -t 0.0149866666666667 -s 1 -d 2 -p tcp -e 540 -c 0 -i 2 -a 0 -x {0.0 5.0 1 ------- null}
- -t 0.0149866666666667 -s 1 -d 2 -p tcp -e 540 -c 0 -i 2 -a 0 -x {0.0 5.0 1 ------- null}
h -t 0.0149866666666667 -s 1 -d 2 -p tcp -e 540 -c 0 -i 2 -a 0 -x {0.0 5.0 -1 ------- null}
r -t 0.0154186666666667 -s 0 -d 1 -p tcp -e 540 -c 0 -i 3 -a 0 -x {0.0 5.0 2 ------- null}
+ -t 0.0154186666666667 -s 1 -d 2 -p tcp -e 540 -c 0 -i 3 -a 0 -x {0.0 5.0 2 ------- null}
- -t 0.0178666666666667 -s 1 -d 2 -p tcp -e 540 -c 0 -i 3 -a 0 -x {0.0 5.0 2 ------- null}
h -t 0.0178666666666667 -s 1 -d 2 -p tcp -e 540 -c 0 -i 3 -a 0 -x {0.0 5.0 -1 ------- null}
r -t 0.0198666666666667 -s 1 -d 2 -p tcp -e 540 -c 0 -i 2 -a 0 -x {0.0 5.0 1 ------- null}
+ -t 0.0198666666666667 -s 2 -d 5 -p tcp -e 540 -c 0 -i 2 -a 0 -x {0.0 5.0 1 ------- null}
- -t 0.0198666666666667 -s 2 -d 5 -p tcp -e 540 -c 0 -i 2 -a 0 -x {0.0 5.0 1 ------- null}
h -t 0.0198666666666667 -s 2 -d 5 -p tcp -e 540 -c 0 -i 2 -a 0 -x {0.0 5.0 -1 ------- null}
r -t 0.0222986666666667 -s 2 -d 5 -p tcp -e 540 -c 0 -i 2 -a 0 -x {0.0 5.0 1 ------- null}
+ -t 0.0222986666666667 -s 5 -d 2 -p ack -e 40 -c 0 -i 4 -a 0 -x {5.0 0.0 1 ------- null}
- -t 0.0222986666666667 -s 5 -d 2 -p ack -e 40 -c 0 -i 4 -a 0 -x {5.0 0.0 1 ------- null}
h -t 0.0222986666666667 -s 5 -d 2 -p ack -e 40 -c 0 -i 4 -a 0 -x {5.0 0.0 -1 ------- null}
r -t 0.0227466666666667 -s 1 -d 2 -p tcp -e 540 -c 0 -i 3 -a 0 -x {0.0 5.0 2 ------- null}
+ -t 0.0227466666666667 -s 2 -d 5 -p tcp -e 540 -c 0 -i 3 -a 0 -x {0.0 5.0 2 ------- null}
- -t 0.0227466666666667 -s 2 -d 5 -p tcp -e 540 -c 0 -i 3 -a 0 -x {0.0 5.0 2 ------- null}
h -t 0.0227466666666667 -s 2 -d 5 -p tcp -e 540 -c 0 -i 3 -a 0 -x {0.0 5.0 -1 ------- null}
r -t 0.0243306666666667 -s 5 -d 2 -p ack -e 40 -c 0 -i 4 -a 0 -x {5.0 0.0 1 ------- null}
+ -t 0.0243306666666667 -s 2 -d 1 -p ack -e 40 -c 0 -i 4 -a 0 -x {5.0 0.0 1 ------- null}
- -t 0.0243306666666667 -s 2 -d 1 -p ack -e 40 -c 0 -i 4 -a 0 -x {5.0 0.0 1 ------- null}
h -t 0.0243306666666667 -s 2 -d 1 -p ack -e 40 -c 0 -i 4 -a 0 -x {5.0 0.0 -1 ------- null}
r -t 0.0251786666666667 -s 2 -d 5 -p tcp -e 540 -c 0 -i 3 -a 0 -x {0.0 5.0 2 ------- null}
+ -t 0.0251786666666667 -s 5 -d 2 -p ack -e 40 -c 0 -i 5 -a 0 -x {5.0 0.0 2 ------- null}
- -t 0.0251786666666667 -s 5 -d 2 -p ack -e 40 -c 0 -i 5 -a 0 -x {5.0 0.0 2 ------- null}
h -t 0.0251786666666667 -s 5 -d 2 -p ack -e 40 -c 0 -i 5 -a 0 -x {5.0 0.0 -1 ------- null}
r -t 0.026544 -s 2 -d 1 -p ack -e 40 -c 0 -i 4 -a 0 -x {5.0 0.0 1 ------- null}
+ -t 0.026544 -s 1 -d 0 -p ack -e 40 -c 0 -i 4 -a 0 -x {5.0 0.0 1 ------- null}
- -t 0.026544 -s 1 -d 0 -p ack -e 40 -c 0 -i 4 -a 0 -x {5.0 0.0 1 ------- null}
h -t 0.026544 -s 1 -d 0 -p ack -e 40 -c 0 -i 4 -a 0 -x {5.0 0.0 -1 ------- null}
r -t 0.0272106666666667 -s 5 -d 2 -p ack -e 40 -c 0 -i 5 -a 0 -x {5.0 0.0 2 ------- null}
+ -t 0.0272106666666667 -s 2 -d 1 -p ack -e 40 -c 0 -i 5 -a 0 -x {5.0 0.0 2 ------- null}
- -t 0.0272106666666667 -s 2 -d 1 -p ack -e 40 -c 0 -i 5 -a 0 -x {5.0 0.0 2 ------- null}
h -t 0.0272106666666667 -s 2 -d 1 -p ack -e 40 -c 0 -i 5 -a 0 -x {5.0 0.0 -1 ------- null}
r -t 0.028576 -s 1 -d 0 -p ack -e 40 -c 0 -i 4 -a 0 -x {5.0 0.0 1 ------- null}
+ -t 0.028576 -s 0 -d 1 -p tcp -e 540 -c 0 -i 6 -a 0 -x {0.0 5.0 3 ------- null}
- -t 0.028576 -s 0 -d 1 -p tcp -e 540 -c 0 -i 6 -a 0 -x {0.0 5.0 3 ------- null}
h -t 0.028576 -s 0 -d 1 -p tcp -e 540 -c 0 -i 6 -a 0 -x {0.0 5.0 -1 ------- null}
+ -t 0.028576 -s 0 -d 1 -p tcp -e 540 -c 0 -i 7 -a 0 -x {0.0 5.0 4 ------- null}
- -t 0.029008 -s 0 -d 1 -p tcp -e 540 -c 0 -i 7 -a 0 -x {0.0 5.0 4 ------- null}
h -t 0.029008 -s 0 -d 1 -p tcp -e 540 -c 0 -i 7 -a 0 -x {0.0 5.0 -1 ------- null}
r -t 0.029424 -s 2 -d 1 -p ack -e 40 -c 0 -i 5 -a 0 -x {5.0 0.0 2 ------- null}
+ -t 0.029424 -s 1 -d 0 -p ack -e 40 -c 0 -i 5 -a 0 -x {5.0 0.0 2 ------- null}
- -t 0.029424 -s 1 -d 0 -p ack -e 40 -c 0 -i 5 -a 0 -x {5.0 0.0 2 ------- null}
h -t 0.029424 -s 1 -d 0 -p ack -e 40 -c 0 -i 5 -a 0 -x {5.0 0.0 -1 ------- null}
r -t 0.031008 -s 0 -d 1 -p tcp -e 540 -c 0 -i 6 -a 0 -x {0.0 5.0 3 ------- null}
+ -t 0.031008 -s 1 -d 2 -p tcp -e 540 -c 0 -i 6 -a 0 -x {0.0 5.0 3 ------- null}
- -t 0.031008 -s 1 -d 2 -p tcp -e 540 -c 0 -i 6 -a 0 -x {0.0 5.0 3 ------- null}
h -t 0.031008 -s 1 -d 2 -p tcp -e 540 -c 0 -i 6 -a 0 -x {0.0 5.0 -1 ------- null}
r -t 0.03144 -s 0 -d 1 -p tcp -e 540 -c 0 -i 7 -a 0 -x {0.0 5.0 4 ------- null}
+ -t 0.03144 -s 1 -d 2 -p tcp -e 540 -c 0 -i 7 -a 0 -x {0.0 5.0 4 ------- null}
r -t 0.031456 -s 1 -d 0 -p ack -e 40 -c 0 -i 5 -a 0 -x {5.0 0.0 2 ------- null}
+ -t 0.031456 -s 0 -d 1 -p tcp -e 540 -c 0 -i 8 -a 0 -x {0.0 5.0 5 ------- null}
- -t 0.031456 -s 0 -d 1 -p tcp -e 540 -c 0 -i 8 -a 0 -x {0.0 5.0 5 ------- null}
h -t 0.031456 -s 0 -d 1 -p tcp -e 540 -c 0 -i 8 -a 0 -x {0.0 5.0 -1 ------- null}
+ -t 0.031456 -s 0 -d 1 -p tcp -e 540 -c 0 -i 9 -a 0 -x {0.0 5.0 6 ------- null}
- -t 0.031888 -s 0 -d 1 -p tcp -e 540 -c 0 -i 9 -a 0 -x {0.0 5.0 6 ------- null}
h -t 0.031888 -s 0 -d 1 -p tcp -e 540 -c 0 -i 9 -a 0 -x {0.0 5.0 -1 ------- null}
- -t 0.033888 -s 1 -d 2 -p tcp -e 540 -c 0 -i 7 -a 0 -x {0.0 5.0 4 ------- null}
h -t 0.033888 -s 1 -d 2 -p tcp -e 540 -c 0 -i 7 -a 0 -x {0.0 5.0 -1 ------- null}
r -t 0.033888 -s 0 -d 1 -p tcp -e 540 -c 0 -i 8 -a 0 -x {0.0 5.0 5 ------- null}
+ -t 0.033888 -s 1 -d 2 -p tcp -e 540 -c 0 -i 8 -a 0 -x {0.0 5.0 5 ------- null}
r -t 0.03432 -s 0 -d 1 -p tcp -e 540 -c 0 -i 9 -a 0 -x {0.0 5.0 6 ------- null}
+ -t 0.03432 -s 1 -d 2 -p tcp -e 540 -c 0 -i 9 -a 0 -x {0.0 5.0 6 ------- null}
r -t 0.035888 -s 1 -d 2 -p tcp -e 540 -c 0 -i 6 -a 0 -x {0.0 5.0 3 ------- null}
+ -t 0.035888 -s 2 -d 5 -p tcp -e 540 -c 0 -i 6 -a 0 -x {0.0 5.0 3 ------- null}
- -t 0.035888 -s 2 -d 5 -p tcp -e 540 -c 0 -i 6 -a 0 -x {0.0 5.0 3 ------- null}
h -t 0.035888 -s 2 -d 5 -p tcp -e 540 -c 0 -i 6 -a 0 -x {0.0 5.0 -1 ------- null}
- -t 0.036768 -s 1 -d 2 -p tcp -e 540 -c 0 -i 8 -a 0 -x {0.0 5.0 5 ------- null}
h -t 0.036768 -s 1 -d 2 -p tcp -e 540 -c 0 -i 8 -a 0 -x {0.0 5.0 -1 ------- null}
r -t 0.03832 -s 2 -d 5 -p tcp -e 540 -c 0 -i 6 -a 0 -x {0.0 5.0 3 ------- null}
+ -t 0.03832 -s 5 -d 2 -p ack -e 40 -c 0 -i 10 -a 0 -x {5.0 0.0 3 ------- null}
- -t 0.03832 -s 5 -d 2 -p ack -e 40 -c 0 -i 10 -a 0 -x {5.0 0.0 3 ------- null}
h -t 0.03832 -s 5 -d 2 -p ack -e 40 -c 0 -i 10 -a 0 -x {5.0 0.0 -1 ------- null}
r -t 0.038768 -s 1 -d 2 -p tcp -e 540 -c 0 -i 7 -a 0 -x {0.0 5.0 4 ------- null}
+ -t 0.038768 -s 2 -d 5 -p tcp -e 540 -c 0 -i 7 -a 0 -x {0.0 5.0 4 ------- null}
- -t 0.038768 -s 2 -d 5 -p tcp -e 540 -c 0 -i 7 -a 0 -x {0.0 5.0 4 ------- null}
h -t 0.038768 -s 2 -d 5 -p tcp -e 540 -c 0 -i 7 -a 0 -x {0.0 5.0 -1 ------- null}
- -t 0.039648 -s 1 -d 2 -p tcp -e 540 -c 0 -i 9 -a 0 -x {0.0 5.0 6 ------- null}
h -t 0.039648 -s 1 -d 2 -p tcp -e 540 -c 0 -i 9 -a 0 -x {0.0 5.0 -1 ------- null}
r -t 0.040352 -s 5 -d 2 -p ack -e 40 -c 0 -i 10 -a 0 -x {5.0 0.0 3 ------- null}
+ -t 0.040352 -s 2 -d 1 -p ack -e 40 -c 0 -i 10 -a 0 -x {5.0 0.0 3 ------- null}
- -t 0.040352 -s 2 -d 1 -p ack -e 40 -c 0 -i 10 -a 0 -x {5.0 0.0 3 ------- null}
h -t 0.040352 -s 2 -d 1 -p ack -e 40 -c 0 -i 10 -a 0 -x {5.0 0.0 -1 ------- null}
r -t 0.0412 -s 2 -d 5 -p tcp -e 540 -c 0 -i 7 -a 0 -x {0.0 5.0 4 ------- null}
+ -t 0.0412 -s 5 -d 2 -p ack -e 40 -c 0 -i 11 -a 0 -x {5.0 0.0 4 ------- null}
- -t 0.0412 -s 5 -d 2 -p ack -e 40 -c 0 -i 11 -a 0 -x {5.0 0.0 4 ------- null}
h -t 0.0412 -s 5 -d 2 -p ack -e 40 -c 0 -i 11 -a 0 -x {5.0 0.0 -1 ------- null}
r -t 0.041648 -s 1 -d 2 -p tcp -e 540 -c 0 -i 8 -a 0 -x {0.0 5.0 5 ------- null}
+ -t 0.041648 -s 2 -d 5 -p tcp -e 540 -c 0 -i 8 -a 0 -x {0.0 5.0 5 ------- null}
- -t 0.041648 -s 2 -d 5 -p tcp -e 540 -c 0 -i 8 -a 0 -x {0.0 5.0 5 ------- null}
h -t 0.041648 -s 2 -d 5 -p tcp -e 540 -c 0 -i 8 -a 0 -x {0.0 5.0 -1 ------- null}
r -t 0.0425653333333333 -s 2 -d 1 -p ack -e 40 -c 0 -i 10 -a 0 -x {5.0 0.0 3 ------- null}
+ -t 0.0425653333333333 -s 1 -d 0 -p ack -e 40 -c 0 -i 10 -a 0 -x {5.0 0.0 3 ------- null}
- -t 0.0425653333333333 -s 1 -d 0 -p ack -e 40 -c 0 -i 10 -a 0 -x {5.0 0.0 3 ------- null}
h -t 0.0425653333333333 -s 1 -d 0 -p ack -e 40 -c 0 -i 10 -a 0 -x {5.0 0.0 -1 ------- null}
r -t 0.043232 -s 5 -d 2 -p ack -e 40 -c 0 -i 11 -a 0 -x {5.0 0.0 4 ------- null}
+ -t 0.043232 -s 2 -d 1 -p ack -e 40 -c 0 -i 11 -a 0 -x {5.0 0.0 4 ------- null}
- -t 0.043232 -s 2 -d 1 -p ack -e 40 -c 0 -i 11 -a 0 -x {5.0 0.0 4 ------- null}
h -t 0.043232 -s 2 -d 1 -p ack -e 40 -c 0 -i 11 -a 0 -x {5.0 0.0 -1 ------- null}
r -t 0.04408 -s 2 -d 5 -p tcp -e 540 -c 0 -i 8 -a 0 -x {0.0 5.0 5 ------- null}
+ -t 0.04408 -s 5 -d 2 -p ack -e 40 -c 0 -i 12 -a 0 -x {5.0 0.0 5 ------- null}
- -t 0.04408 -s 5 -d 2 -p ack -e 40 -c 0 -i 12 -a 0 -x {5.0 0.0 5 ------- null}
h -t 0.04408 -s 5 -d 2 -p ack -e 40 -c 0 -i 12 -a 0 -x {5.0 0.0 -1 ------- null}
r -t 0.044528 -s 1 -d 2 -p tcp -e 540 -c 0 -i 9 -a 0 -x {0.0 5.0 6 ------- null}
+ -t 0.044528 -s 2 -d 5 -p tcp -e 540 -c 0 -i 9 -a 0 -x {0.0 5.0 6 ------- null}
- -t 0.044528 -s 2 -d 5 -p tcp -e 540 -c 0 -i 9 -a 0 -x {0.0 5.0 6 ------- null}
h -t 0.044528 -s 2 -d 5 -p tcp -e 540 -c 0 -i 9 -a 0 -x {0.0 5.0 -1 ------- null}
r -t 0.0445973333333333 -s 1 -d 0 -p ack -e 40 -c 0 -i 10 -a 0 -x {5.0 0.0 3 ------- null}
+ -t 0.0445973333333333 -s 0 -d 1 -p tcp -e 540 -c 0 -i 13 -a 0 -x {0.0 5.0 7 ------- null}
- -t 0.0445973333333333 -s 0 -d 1 -p tcp -e 540 -c 0 -i 13 -a 0 -x {0.0 5.0 7 ------- null}
h -t 0.0445973333333333 -s 0 -d 1 -p tcp -e 540 -c 0 -i 13 -a 0 -x {0.0 5.0 -1 ------- null}
+ -t 0.0445973333333333 -s 0 -d 1 -p tcp -e 540 -c 0 -i 14 -a 0 -x {0.0 5.0 8 ------- null}
- -t 0.0450293333333333 -s 0 -d 1 -p tcp -e 540 -c 0 -i 14 -a 0 -x {0.0 5.0 8 ------- null}
h -t 0.0450293333333333 -s 0 -d 1 -p tcp -e 540 -c 0 -i 14 -a 0 -x {0.0 5.0 -1 ------- null}
r -t 0.0454453333333333 -s 2 -d 1 -p ack -e 40 -c 0 -i 11 -a 0 -x {5.0 0.0 4 ------- null}
+ -t 0.0454453333333333 -s 1 -d 0 -p ack -e 40 -c 0 -i 11 -a 0 -x {5.0 0.0 4 ------- null}
- -t 0.0454453333333333 -s 1 -d 0 -p ack -e 40 -c 0 -i 11 -a 0 -x {5.0 0.0 4 ------- null}
h -t 0.0454453333333333 -s 1 -d 0 -p ack -e 40 -c 0 -i 11 -a 0 -x {5.0 0.0 -1 ------- null}
r -t 0.046112 -s 5 -d 2 -p ack -e 40 -c 0 -i 12 -a 0 -x {5.0 0.0 5 ------- null}
+ -t 0.046112 -s 2 -d 1 -p ack -e 40 -c 0 -i 12 -a 0 -x {5.0 0.0 5 ------- null}
- -t 0.046112 -s 2 -d 1 -p ack -e 40 -c 0 -i 12 -a 0 -x {5.0 0.0 5 ------- null}
h -t 0.046112 -s 2 -d 1 -p ack -e 40 -c 0 -i 12 -a 0 -x {5.0 0.0 -1 ------- null}
r -t 0.04696 -s 2 -d 5 -p tcp -e 540 -c 0 -i 9 -a 0 -x {0.0 5.0 6 ------- null}
+ -t 0.04696 -s 5 -d 2 -p ack -e 40 -c 0 -i 15 -a 0 -x {5.0 0.0 6 ------- null}
- -t 0.04696 -s 5 -d 2 -p ack -e 40 -c 0 -i 15 -a 0 -x {5.0 0.0 6 ------- null}
h -t 0.04696 -s 5 -d 2 -p ack -e 40 -c 0 -i 15 -a 0 -x {5.0 0.0 -1 ------- null}
r -t 0.0470293333333333 -s 0 -d 1 -p tcp -e 540 -c 0 -i 13 -a 0 -x {0.0 5.0 7 ------- null}
+ -t 0.0470293333333333 -s 1 -d 2 -p tcp -e 540 -c 0 -i 13 -a 0 -x {0.0 5.0 7 ------- null}
- -t 0.0470293333333333 -s 1 -d 2 -p tcp -e 540 -c 0 -i 13 -a 0 -x {0.0 5.0 7 ------- null}
h -t 0.0470293333333333 -s 1 -d 2 -p tcp -e 540 -c 0 -i 13 -a 0 -x {0.0 5.0 -1 ------- null}
r -t 0.0474613333333333 -s 0 -d 1 -p tcp -e 540 -c 0 -i 14 -a 0 -x {0.0 5.0 8 ------- null}
+ -t 0.0474613333333333 -s 1 -d 2 -p tcp -e 540 -c 0 -i 14 -a 0 -x {0.0 5.0 8 ------- null}
r -t 0.0474773333333333 -s 1 -d 0 -p ack -e 40 -c 0 -i 11 -a 0 -x {5.0 0.0 4 ------- null}
+ -t 0.0474773333333333 -s 0 -d 1 -p tcp -e 540 -c 0 -i 16 -a 0 -x {0.0 5.0 9 ------- null}
- -t 0.0474773333333333 -s 0 -d 1 -p tcp -e 540 -c 0 -i 16 -a 0 -x {0.0 5.0 9 ------- null}
h -t 0.0474773333333333 -s 0 -d 1 -p tcp -e 540 -c 0 -i 16 -a 0 -x {0.0 5.0 -1 ------- null}
+ -t 0.0474773333333333 -s 0 -d 1 -p tcp -e 540 -c 0 -i 17 -a 0 -x {0.0 5.0 10 ------- null}
- -t 0.0479093333333333 -s 0 -d 1 -p tcp -e 540 -c 0 -i 17 -a 0 -x {0.0 5.0 10 ------- null}
h -t 0.0479093333333333 -s 0 -d 1 -p tcp -e 540 -c 0 -i 17 -a 0 -x {0.0 5.0 -1 ------- null}
r -t 0.0483253333333333 -s 2 -d 1 -p ack -e 40 -c 0 -i 12 -a 0 -x {5.0 0.0 5 ------- null}
+ -t 0.0483253333333333 -s 1 -d 0 -p ack -e 40 -c 0 -i 12 -a 0 -x {5.0 0.0 5 ------- null}
- -t 0.0483253333333333 -s 1 -d 0 -p ack -e 40 -c 0 -i 12 -a 0 -x {5.0 0.0 5 ------- null}
h -t 0.0483253333333333 -s 1 -d 0 -p ack -e 40 -c 0 -i 12 -a 0 -x {5.0 0.0 -1 ------- null}
r -t 0.048992 -s 5 -d 2 -p ack -e 40 -c 0 -i 15 -a 0 -x {5.0 0.0 6 ------- null}
+ -t 0.048992 -s 2 -d 1 -p ack -e 40 -c 0 -i 15 -a 0 -x {5.0 0.0 6 ------- null}
- -t 0.048992 -s 2 -d 1 -p ack -e 40 -c 0 -i 15 -a 0 -x {5.0 0.0 6 ------- null}
h -t 0.048992 -s 2 -d 1 -p ack -e 40 -c 0 -i 15 -a 0 -x {5.0 0.0 -1 ------- null}
- -t 0.0499093333333333 -s 1 -d 2 -p tcp -e 540 -c 0 -i 14 -a 0 -x {0.0 5.0 8 ------- null}
h -t 0.0499093333333333 -s 1 -d 2 -p tcp -e 540 -c 0 -i 14 -a 0 -x {0.0 5.0 -1 ------- null}
r -t 0.0499093333333333 -s 0 -d 1 -p tcp -e 540 -c 0 -i 16 -a 0 -x {0.0 5.0 9 ------- null}
+ -t 0.0499093333333333 -s 1 -d 2 -p tcp -e 540 -c 0 -i 16 -a 0 -x {0.0 5.0 9 ------- null}
r -t 0.0503413333333333 -s 0 -d 1 -p tcp -e 540 -c 0 -i 17 -a 0 -x {0.0 5.0 10 ------- null}
+ -t 0.0503413333333333 -s 1 -d 2 -p tcp -e 540 -c 0 -i 17 -a 0 -x {0.0 5.0 10 ------- null}
r -t 0.0503573333333333 -s 1 -d 0 -p ack -e 40 -c 0 -i 12 -a 0 -x {5.0 0.0 5 ------- null}
+ -t 0.0503573333333333 -s 0 -d 1 -p tcp -e 540 -c 0 -i 18 -a 0 -x {0.0 5.0 11 ------- null}
- -t 0.0503573333333333 -s 0 -d 1 -p tcp -e 540 -c 0 -i 18 -a 0 -x {0.0 5.0 11 ------- null}
h -t 0.0503573333333333 -s 0 -d 1 -p tcp -e 540 -c 0 -i 18 -a 0 -x {0.0 5.0 -1 ------- null}
+ -t 0.0503573333333333 -s 0 -d 1 -p tcp -e 540 -c 0 -i 19 -a 0 -x {0.0 5.0 12 ------- null}
- -t 0.0507893333333333 -s 0 -d 1 -p tcp -e 540 -c 0 -i 19 -a 0 -x {0.0 5.0 12 ------- null}
h -t 0.0507893333333333 -s 0 -d 1 -p tcp -e 540 -c 0 -i 19 -a 0 -x {0.0 5.0 -1 ------- null}
r -t 0.0512053333333333 -s 2 -d 1 -p ack -e 40 -c 0 -i 15 -a 0 -x {5.0 0.0 6 ------- null}
+ -t 0.0512053333333333 -s 1 -d 0 -p ack -e 40 -c 0 -i 15 -a 0 -x {5.0 0.0 6 ------- null}
- -t 0.0512053333333333 -s 1 -d 0 -p ack -e 40 -c 0 -i 15 -a 0 -x {5.0 0.0 6 ------- null}
h -t 0.0512053333333333 -s 1 -d 0 -p ack -e 40 -c 0 -i 15 -a 0 -x {5.0 0.0 -1 ------- null}
r -t 0.0519093333333333 -s 1 -d 2 -p tcp -e 540 -c 0 -i 13 -a 0 -x {0.0 5.0 7 ------- null}
+ -t 0.0519093333333333 -s 2 -d 5 -p tcp -e 540 -c 0 -i 13 -a 0 -x {0.0 5.0 7 ------- null}
- -t 0.0519093333333333 -s 2 -d 5 -p tcp -e 540 -c 0 -i 13 -a 0 -x {0.0 5.0 7 ------- null}
h -t 0.0519093333333333 -s 2 -d 5 -p tcp -e 540 -c 0 -i 13 -a 0 -x {0.0 5.0 -1 ------- null}
- -t 0.0527893333333333 -s 1 -d 2 -p tcp -e 540 -c 0 -i 16 -a 0 -x {0.0 5.0 9 ------- null}
h -t 0.0527893333333333 -s 1 -d 2 -p tcp -e 540 -c 0 -i 16 -a 0 -x {0.0 5.0 -1 ------- null}
r -t 0.0527893333333333 -s 0 -d 1 -p tcp -e 540 -c 0 -i 18 -a 0 -x {0.0 5.0 11 ------- null}
+ -t 0.0527893333333333 -s 1 -d 2 -p tcp -e 540 -c 0 -i 18 -a 0 -x {0.0 5.0 11 ------- null}
r -t 0.0532213333333333 -s 0 -d 1 -p tcp -e 540 -c 0 -i 19 -a 0 -x {0.0 5.0 12 ------- null}
+ -t 0.0532213333333333 -s 1 -d 2 -p tcp -e 540 -c 0 -i 19 -a 0 -x {0.0 5.0 12 ------- null}
r -t 0.0532373333333333 -s 1 -d 0 -p ack -e 40 -c 0 -i 15 -a 0 -x {5.0 0.0 6 ------- null}
+ -t 0.0532373333333333 -s 0 -d 1 -p tcp -e 540 -c 0 -i 20 -a 0 -x {0.0 5.0 13 ------- null}
- -t 0.0532373333333333 -s 0 -d 1 -p tcp -e 540 -c 0 -i 20 -a 0 -x {0.0 5.0 13 ------- null}
h -t 0.0532373333333333 -s 0 -d 1 -p tcp -e 540 -c 0 -i 20 -a 0 -x {0.0 5.0 -1 ------- null}
+ -t 0.0532373333333333 -s 0 -d 1 -p tcp -e 540 -c 0 -i 21 -a 0 -x {0.0 5.0 14 ------- null}
- -t 0.0536693333333333 -s 0 -d 1 -p tcp -e 540 -c 0 -i 21 -a 0 -x {0.0 5.0 14 ------- null}
h -t 0.0536693333333333 -s 0 -d 1 -p tcp -e 540 -c 0 -i 21 -a 0 -x {0.0 5.0 -1 ------- null}
r -t 0.0543413333333333 -s 2 -d 5 -p tcp -e 540 -c 0 -i 13 -a 0 -x {0.0 5.0 7 ------- null}
+ -t 0.0543413333333333 -s 5 -d 2 -p ack -e 40 -c 0 -i 22 -a 0 -x {5.0 0.0 7 ------- null}
- -t 0.0543413333333333 -s 5 -d 2 -p ack -e 40 -c 0 -i 22 -a 0 -x {5.0 0.0 7 ------- null}
h -t 0.0543413333333333 -s 5 -d 2 -p ack -e 40 -c 0 -i 22 -a 0 -x {5.0 0.0 -1 ------- null}
r -t 0.0547893333333333 -s 1 -d 2 -p tcp -e 540 -c 0 -i 14 -a 0 -x {0.0 5.0 8 ------- null}
+ -t 0.0547893333333333 -s 2 -d 5 -p tcp -e 540 -c 0 -i 14 -a 0 -x {0.0 5.0 8 ------- null}
- -t 0.0547893333333333 -s 2 -d 5 -p tcp -e 540 -c 0 -i 14 -a 0 -x {0.0 5.0 8 ------- null}
h -t 0.0547893333333333 -s 2 -d 5 -p tcp -e 540 -c 0 -i 14 -a 0 -x {0.0 5.0 -1 ------- null}
- -t 0.0556693333333333 -s 1 -d 2 -p tcp -e 540 -c 0 -i 17 -a 0 -x {0.0 5.0 10 ------- null}
h -t 0.0556693333333333 -s 1 -d 2 -p tcp -e 540 -c 0 -i 17 -a 0 -x {0.0 5.0 -1 ------- null}
r -t 0.0556693333333333 -s 0 -d 1 -p tcp -e 540 -c 0 -i 20 -a 0 -x {0.0 5.0 13 ------- null}
+ -t 0.0556693333333333 -s 1 -d 2 -p tcp -e 540 -c 0 -i 20 -a 0 -x {0.0 5.0 13 ------- null}
r -t 0.0561013333333333 -s 0 -d 1 -p tcp -e 540 -c 0 -i 21 -a 0 -x {0.0 5.0 14 ------- null}
+ -t 0.0561013333333333 -s 1 -d 2 -p tcp -e 540 -c 0 -i 21 -a 0 -x {0.0 5.0 14 ------- null}
r -t 0.0563733333333333 -s 5 -d 2 -p ack -e 40 -c 0 -i 22 -a 0 -x {5.0 0.0 7 ------- null}
+ -t 0.0563733333333333 -s 2 -d 1 -p ack -e 40 -c 0 -i 22 -a 0 -x {5.0 0.0 7 ------- null}
- -t 0.0563733333333333 -s 2 -d 1 -p ack -e 40 -c 0 -i 22 -a 0 -x {5.0 0.0 7 ------- null}
h -t 0.0563733333333333 -s 2 -d 1 -p ack -e 40 -c 0 -i 22 -a 0 -x {5.0 0.0 -1 ------- null}
r -t 0.0572213333333333 -s 2 -d 5 -p tcp -e 540 -c 0 -i 14 -a 0 -x {0.0 5.0 8 ------- null}
+ -t 0.0572213333333333 -s 5 -d 2 -p ack -e 40 -c 0 -i 23 -a 0 -x {5.0 0.0 8 ------- null}
- -t 0.0572213333333333 -s 5 -d 2 -p ack -e 40 -c 0 -i 23 -a 0 -x {5.0 0.0 8 ------- null}
h -t 0.0572213333333333 -s 5 -d 2 -p ack -e 40 -c 0 -i 23 -a 0 -x {5.0 0.0 -1 ------- null}
r -t 0.0576693333333333 -s 1 -d 2 -p tcp -e 540 -c 0 -i 16 -a 0 -x {0.0 5.0 9 ------- null}
+ -t 0.0576693333333333 -s 2 -d 5 -p tcp -e 540 -c 0 -i 16 -a 0 -x {0.0 5.0 9 ------- null}
- -t 0.0576693333333333 -s 2 -d 5 -p tcp -e 540 -c 0 -i 16 -a 0 -x {0.0 5.0 9 ------- null}
h -t 0.0576693333333333 -s 2 -d 5 -p tcp -e 540 -c 0 -i 16 -a 0 -x {0.0 5.0 -1 ------- null}
- -t 0.0585493333333333 -s 1 -d 2 -p tcp -e 540 -c 0 -i 18 -a 0 -x {0.0 5.0 11 ------- null}
h -t 0.0585493333333333 -s 1 -d 2 -p tcp -e 540 -c 0 -i 18 -a 0 -x {0.0 5.0 -1 ------- null}
r -t 0.0585866666666667 -s 2 -d 1 -p ack -e 40 -c 0 -i 22 -a 0 -x {5.0 0.0 7 ------- null}
+ -t 0.0585866666666667 -s 1 -d 0 -p ack -e 40 -c 0 -i 22 -a 0 -x {5.0 0.0 7 ------- null}
- -t 0.0585866666666667 -s 1 -d 0 -p ack -e 40 -c 0 -i 22 -a 0 -x {5.0 0.0 7 ------- null}
h -t 0.0585866666666667 -s 1 -d 0 -p ack -e 40 -c 0 -i 22 -a 0 -x {5.0 0.0 -1 ------- null}
r -t 0.0592533333333333 -s 5 -d 2 -p ack -e 40 -c 0 -i 23 -a 0 -x {5.0 0.0 8 ------- null}
+ -t 0.0592533333333333 -s 2 -d 1 -p ack -e 40 -c 0 -i 23 -a 0 -x {5.0 0.0 8 ------- null}
- -t 0.0592533333333333 -s 2 -d 1 -p ack -e 40 -c 0 -i 23 -a 0 -x {5.0 0.0 8 ------- null}
h -t 0.0592533333333333 -s 2 -d 1 -p ack -e 40 -c 0 -i 23 -a 0 -x {5.0 0.0 -1 ------- null}
r -t 0.0601013333333333 -s 2 -d 5 -p tcp -e 540 -c 0 -i 16 -a 0 -x {0.0 5.0 9 ------- null}
+ -t 0.0601013333333333 -s 5 -d 2 -p ack -e 40 -c 0 -i 24 -a 0 -x {5.0 0.0 9 ------- null}
- -t 0.0601013333333333 -s 5 -d 2 -p ack -e 40 -c 0 -i 24 -a 0 -x {5.0 0.0 9 ------- null}
h -t 0.0601013333333333 -s 5 -d 2 -p ack -e 40 -c 0 -i 24 -a 0 -x {5.0 0.0 -1 ------- null}
r -t 0.0605493333333333 -s 1 -d 2 -p tcp -e 540 -c 0 -i 17 -a 0 -x {0.0 5.0 10 ------- null}
+ -t 0.0605493333333333 -s 2 -d 5 -p tcp -e 540 -c 0 -i 17 -a 0 -x {0.0 5.0 10 ------- null}
- -t 0.0605493333333333 -s 2 -d 5 -p tcp -e 540 -c 0 -i 17 -a 0 -x {0.0 5.0 10 ------- null}
h -t 0.0605493333333333 -s 2 -d 5 -p tcp -e 540 -c 0 -i 17 -a 0 -x {0.0 5.0 -1 ------- null}
r -t 0.0606186666666667 -s 1 -d 0 -p ack -e 40 -c 0 -i 22 -a 0 -x {5.0 0.0 7 ------- null}
+ -t 0.0606186666666667 -s 0 -d 1 -p tcp -e 540 -c 0 -i 25 -a 0 -x {0.0 5.0 15 ------- null}
- -t 0.0606186666666667 -s 0 -d 1 -p tcp -e 540 -c 0 -i 25 -a 0 -x {0.0 5.0 15 ------- null}
h -t 0.0606186666666667 -s 0 -d 1 -p tcp -e 540 -c 0 -i 25 -a 0 -x {0.0 5.0 -1 ------- null}
+ -t 0.0606186666666667 -s 0 -d 1 -p tcp -e 540 -c 0 -i 26 -a 0 -x {0.0 5.0 16 ------- null}
- -t 0.0610506666666667 -s 0 -d 1 -p tcp -e 540 -c 0 -i 26 -a 0 -x {0.0 5.0 16 ------- null}
h -t 0.0610506666666667 -s 0 -d 1 -p tcp -e 540 -c 0 -i 26 -a 0 -x {0.0 5.0 -1 ------- null}
- -t 0.0614293333333333 -s 1 -d 2 -p tcp -e 540 -c 0 -i 19 -a 0 -x {0.0 5.0 12 ------- null}
h -t 0.0614293333333333 -s 1 -d 2 -p tcp -e 540 -c 0 -i 19 -a 0 -x {0.0 5.0 -1 ------- null}
r -t 0.0614666666666667 -s 2 -d 1 -p ack -e 40 -c 0 -i 23 -a 0 -x {5.0 0.0 8 ------- null}
+ -t 0.0614666666666667 -s 1 -d 0 -p ack -e 40 -c 0 -i 23 -a 0 -x {5.0 0.0 8 ------- null}
- -t 0.0614666666666667 -s 1 -d 0 -p ack -e 40 -c 0 -i 23 -a 0 -x {5.0 0.0 8 ------- null}
h -t 0.0614666666666667 -s 1 -d 0 -p ack -e 40 -c 0 -i 23 -a 0 -x {5.0 0.0 -1 ------- null}
r -t 0.0621333333333333 -s 5 -d 2 -p ack -e 40 -c 0 -i 24 -a 0 -x {5.0 0.0 9 ------- null}
+ -t 0.0621333333333333 -s 2 -d 1 -p ack -e 40 -c 0 -i 24 -a 0 -x {5.0 0.0 9 ------- null}
- -t 0.0621333333333333 -s 2 -d 1 -p ack -e 40 -c 0 -i 24 -a 0 -x {5.0 0.0 9 ------- null}
h -t 0.0621333333333333 -s 2 -d 1 -p ack -e 40 -c 0 -i 24 -a 0 -x {5.0 0.0 -1 ------- null}
r -t 0.0629813333333333 -s 2 -d 5 -p tcp -e 540 -c 0 -i 17 -a 0 -x {0.0 5.0 10 ------- null}
+ -t 0.0629813333333333 -s 5 -d 2 -p ack -e 40 -c 0 -i 27 -a 0 -x {5.0 0.0 10 ------- null}
- -t 0.0629813333333333 -s 5 -d 2 -p ack -e 40 -c 0 -i 27 -a 0 -x {5.0 0.0 10 ------- null}
h -t 0.0629813333333333 -s 5 -d 2 -p ack -e 40 -c 0 -i 27 -a 0 -x {5.0 0.0 -1 ------- null}
r -t 0.0630506666666667 -s 0 -d 1 -p tcp -e 540 -c 0 -i 25 -a 0 -x {0.0 5.0 15 ------- null}
+ -t 0.0630506666666667 -s 1 -d 2 -p tcp -e 540 -c 0 -i 25 -a 0 -x {0.0 5.0 15 ------- null}
r -t 0.0634293333333333 -s 1 -d 2 -p tcp -e 540 -c 0 -i 18 -a 0 -x {0.0 5.0 11 ------- null}
+ -t 0.0634293333333333 -s 2 -d 5 -p tcp -e 540 -c 0 -i 18 -a 0 -x {0.0 5.0 11 ------- null}
- -t 0.0634293333333333 -s 2 -d 5 -p tcp -e 540 -c 0 -i 18 -a 0 -x {0.0 5.0 11 ------- null}
h -t 0.0634293333333333 -s 2 -d 5 -p tcp -e 540 -c 0 -i 18 -a 0 -x {0.0 5.0 -1 ------- null}
r -t 0.0634826666666667 -s 0 -d 1 -p tcp -e 540 -c 0 -i 26 -a 0 -x {0.0 5.0 16 ------- null}
+ -t 0.0634826666666667 -s 1 -d 2 -p tcp -e 540 -c 0 -i 26 -a 0 -x {0.0 5.0 16 ------- null}
r -t 0.0634986666666667 -s 1 -d 0 -p ack -e 40 -c 0 -i 23 -a 0 -x {5.0 0.0 8 ------- null}
+ -t 0.064 -s 0 -d 1 -p tcp -e 540 -c 0 -i 28 -a 0 -x {0.0 5.0 17 ------- null}
- -t 0.064 -s 0 -d 1 -p tcp -e 540 -c 0 -i 28 -a 0 -x {0.0 5.0 17 ------- null}
h -t 0.064 -s 0 -d 1 -p tcp -e 540 -c 0 -i 28 -a 0 -x {0.0 5.0 -1 ------- null}
- -t 0.0643093333333333 -s 1 -d 2 -p tcp -e 540 -c 0 -i 20 -a 0 -x {0.0 5.0 13 ------- null}
h -t 0.0643093333333333 -s 1 -d 2 -p tcp -e 540 -c 0 -i 20 -a 0 -x {0.0 5.0 -1 ------- null}
r -t 0.0643466666666667 -s 2 -d 1 -p ack -e 40 -c 0 -i 24 -a 0 -x {5.0 0.0 9 ------- null}
+ -t 0.0643466666666667 -s 1 -d 0 -p ack -e 40 -c 0 -i 24 -a 0 -x {5.0 0.0 9 ------- null}
- -t 0.0643466666666667 -s 1 -d 0 -p ack -e 40 -c 0 -i 24 -a 0 -x {5.0 0.0 9 ------- null}
h -t 0.0643466666666667 -s 1 -d 0 -p ack -e 40 -c 0 -i 24 -a 0 -x {5.0 0.0 -1 ------- null}
r -t 0.0650133333333333 -s 5 -d 2 -p ack -e 40 -c 0 -i 27 -a 0 -x {5.0 0.0 10 ------- null}
+ -t 0.0650133333333333 -s 2 -d 1 -p ack -e 40 -c 0 -i 27 -a 0 -x {5.0 0.0 10 ------- null}
- -t 0.0650133333333333 -s 2 -d 1 -p ack -e 40 -c 0 -i 27 -a 0 -x {5.0 0.0 10 ------- null}
h -t 0.0650133333333333 -s 2 -d 1 -p ack -e 40 -c 0 -i 27 -a 0 -x {5.0 0.0 -1 ------- null}
r -t 0.0658613333333333 -s 2 -d 5 -p tcp -e 540 -c 0 -i 18 -a 0 -x {0.0 5.0 11 ------- null}
+ -t 0.0658613333333333 -s 5 -d 2 -p ack -e 40 -c 0 -i 29 -a 0 -x {5.0 0.0 11 ------- null}
- -t 0.0658613333333333 -s 5 -d 2 -p ack -e 40 -c 0 -i 29 -a 0 -x {5.0 0.0 11 ------- null}
h -t 0.0658613333333333 -s 5 -d 2 -p ack -e 40 -c 0 -i 29 -a 0 -x {5.0 0.0 -1 ------- null}
r -t 0.0663093333333333 -s 1 -d 2 -p tcp -e 540 -c 0 -i 19 -a 0 -x {0.0 5.0 12 ------- null}
+ -t 0.0663093333333333 -s 2 -d 5 -p tcp -e 540 -c 0 -i 19 -a 0 -x {0.0 5.0 12 ------- null}
- -t 0.0663093333333333 -s 2 -d 5 -p tcp -e 540 -c 0 -i 19 -a 0 -x {0.0 5.0 12 ------- null}
h -t 0.0663093333333333 -s 2 -d 5 -p tcp -e 540 -c 0 -i 19 -a 0 -x {0.0 5.0 -1 ------- null}
r -t 0.0663786666666667 -s 1 -d 0 -p ack -e 40 -c 0 -i 24 -a 0 -x {5.0 0.0 9 ------- null}
r -t 0.066432 -s 0 -d 1 -p tcp -e 540 -c 0 -i 28 -a 0 -x {0.0 5.0 17 ------- null}
+ -t 0.066432 -s 1 -d 2 -p tcp -e 540 -c 0 -i 28 -a 0 -x {0.0 5.0 17 ------- null}
- -t 0.0671893333333333 -s 1 -d 2 -p tcp -e 540 -c 0 -i 21 -a 0 -x {0.0 5.0 14 ------- null}
h -t 0.0671893333333333 -s 1 -d 2 -p tcp -e 540 -c 0 -i 21 -a 0 -x {0.0 5.0 -1 ------- null}
r -t 0.0672266666666667 -s 2 -d 1 -p ack -e 40 -c 0 -i 27 -a 0 -x {5.0 0.0 10 ------- null}
+ -t 0.0672266666666667 -s 1 -d 0 -p ack -e 40 -c 0 -i 27 -a 0 -x {5.0 0.0 10 ------- null}
- -t 0.0672266666666667 -s 1 -d 0 -p ack -e 40 -c 0 -i 27 -a 0 -x {5.0 0.0 10 ------- null}
h -t 0.0672266666666667 -s 1 -d 0 -p ack -e 40 -c 0 -i 27 -a 0 -x {5.0 0.0 -1 ------- null}
r -t 0.0678933333333333 -s 5 -d 2 -p ack -e 40 -c 0 -i 29 -a 0 -x {5.0 0.0 11 ------- null}
+ -t 0.0678933333333333 -s 2 -d 1 -p ack -e 40 -c 0 -i 29 -a 0 -x {5.0 0.0 11 ------- null}
- -t 0.0678933333333333 -s 2 -d 1 -p ack -e 40 -c 0 -i 29 -a 0 -x {5.0 0.0 11 ------- null}
h -t 0.0678933333333333 -s 2 -d 1 -p ack -e 40 -c 0 -i 29 -a 0 -x {5.0 0.0 -1 ------- null}
+ -t 0.068 -s 0 -d 1 -p tcp -e 540 -c 0 -i 30 -a 0 -x {0.0 5.0 18 ------- null}
- -t 0.068 -s 0 -d 1 -p tcp -e 540 -c 0 -i 30 -a 0 -x {0.0 5.0 18 ------- null}
h -t 0.068 -s 0 -d 1 -p tcp -e 540 -c 0 -i 30 -a 0 -x {0.0 5.0 -1 ------- null}
r -t 0.0687413333333333 -s 2 -d 5 -p tcp -e 540 -c 0 -i 19 -a 0 -x {0.0 5.0 12 ------- null}
+ -t 0.0687413333333333 -s 5 -d 2 -p ack -e 40 -c 0 -i 31 -a 0 -x {5.0 0.0 12 ------- null}